 Q-Chem 4.2, Q-Chem, Inc., Pleasanton, CA (2014).
 Q-Chem 4.2.0 for Intel X86 EM64T Linux

User input:
--------------------------------------------------------------
$molecule
0 1
 H          0.0000000000       -0.0000253655        3.0942743740
 C          0.0000000000       -0.0000331397        2.0194505573
 C          0.0000000000       -0.0000419268        0.7879304544
 H          0.0000000000       -0.0000496893       -0.2868933569
$end

$rem
	jobtype 				opt
	exchange 				b97-d
	dft_d					empirical_grimme3
	basis 					gen ! def2-tzvpd
	max_scf_cycles 			200
	symmetry 				false
	sym_ignore 				true
	molden_format			true
	nbo						false
	scf_convergence 		8
	thresh					13
	geom_opt_tol_gradient 	100
	geom_opt_tol_energy     10
	GEOM_OPT_MAX_CYCLES		500
	thresh					13
	mem_static				3000
	mem_total				8000
	DFT_D3_RS6 				892
	DFT_D3_S8  				909
$end

$nbo
e2pert
$end

$basis ! def2-tzvpd
****
H     0
S   3   1.00
     34.061341000            0.60251978000E-02
      5.1235746000           0.45021094000E-01
      1.1646626000           0.20189726000
S   1   1.00
      0.32723041000          1.0000000
S   1   1.00
      0.10307241000          1.0000000
P   1   1.00
      0.80000000000          1.0000000
P   1   1.00
      0.95774129632E-01            1.0000000
****
C     0
S   6   1.00
  13575.3496820              0.22245814352E-03
   2035.2333680              0.17232738252E-02
    463.22562359             0.89255715314E-02
    131.20019598             0.35727984502E-01
     42.853015891            0.11076259931
     15.584185766            0.24295627626
S   2   1.00
      6.2067138508           0.41440263448
      2.5764896527           0.23744968655
S   1   1.00
      0.57696339419          1.0000000
S   1   1.00
      0.22972831358          1.0000000
S   1   1.00
      0.95164440028E-01            1.0000000
S   1   1.00
      0.48475401370E-01            1.0000000
P   4   1.00
     34.697232244            0.53333657805E-02
      7.9582622826           0.35864109092E-01
      2.3780826883           0.14215873329
      0.81433208183          0.34270471845
P   1   1.00
      0.28887547253          1.0000000
P   1   1.00
      0.10056823671          1.0000000
D   1   1.00
      1.0970000000           1.0000000
D   1   1.00
      0.31800000000          1.0000000
D   1   1.00
      0.90985336424E-01            1.0000000
F   1   1.00
      0.76100000000          1.0000000
****
N     0
S   6   1.00
  19730.8006470              0.21887984991E-03
   2957.8958745              0.16960708803E-02
    673.22133595             0.87954603538E-02
    190.68249494             0.35359382605E-01
     62.295441898            0.11095789217
     22.654161182            0.24982972552
S   2   1.00
      8.9791477428           0.40623896148
      3.6863002370           0.24338217176
S   1   1.00
      0.84660076805          1.0000000
S   1   1.00
      0.33647133771          1.0000000
S   1   1.00
      0.13647653675          1.0000000
S   1   1.00
      0.68441605847E-01            1.0000000
P   4   1.00
     49.200380510            0.55552416751E-02
     11.346790537            0.38052379723E-01
      3.4273972411           0.14953671029
      1.1785525134           0.34949305230
P   1   1.00
      0.41642204972          1.0000000
P   1   1.00
      0.14260826011          1.0000000
D   1   1.00
      1.6540000000           1.0000000
D   1   1.00
      0.46900000000          1.0000000
D   1   1.00
      0.12829642058          1.0000000
F   1   1.00
      1.0930000000           1.0000000
****
O     0
S   6   1.00
  27032.3826310              0.21726302465E-03
   4052.3871392              0.16838662199E-02
    922.32722710             0.87395616265E-02
    261.24070989             0.35239968808E-01
     85.354641351            0.11153519115
     31.035035245            0.25588953961
S   2   1.00
     12.260860728            0.39768730901
      4.9987076005           0.24627849430
S   1   1.00
      1.1703108158           1.0000000
S   1   1.00
      0.46474740994          1.0000000
S   1   1.00
      0.18504536357          1.0000000
S   1   1.00
      0.70288026270E-01            1.0000000
P   4   1.00
     63.274954801            0.60685103418E-02
     14.627049379            0.41912575824E-01
      4.4501223456           0.16153841088
      1.5275799647           0.35706951311
P   1   1.00
      0.52935117943          1.0000000
P   1   1.00
      0.17478421270          1.0000000
P   1   1.00
      0.51112745706E-01            1.0000000
D   1   1.00
      2.3140000000           1.0000000
D   1   1.00
      0.64500000000          1.0000000
D   1   1.00
      0.14696477366          1.0000000
F   1   1.00
      1.4280000000           1.0000000
****
$end

--------------------------------------------------------------

   14     -77.3043397265      2.11E-09 Convergence criterion met
 Total energy in the final basis set = -77.3043397265
    9     -77.3038314143      2.00E-09 Convergence criterion met
 Total energy in the final basis set = -77.3038314143
    9     -77.3053994911      2.68E-10 Convergence criterion met
 Total energy in the final basis set = -77.3053994911
    8     -77.3055105277      1.46E-09 Convergence criterion met
 Total energy in the final basis set = -77.3055105277
    8     -77.3055901675      4.47E-09 Convergence criterion met
 Total energy in the final basis set = -77.3055901675
    7     -77.3055902270      5.02E-10 Convergence criterion met
 Total energy in the final basis set = -77.3055902270
 Final energy is   -77.3055902270031
 **  OPTIMIZATION CONVERGED  **
 Total job time:  13.32s(wall), 53.04s(cpu)
        *  Thank you very much for using Q-Chem.  Have a nice day.  *
 Q-Chem 4.2, Q-Chem, Inc., Pleasanton, CA (2014).
 Q-Chem 4.2.0 for Intel X86 EM64T Linux

User input:
--------------------------------------------------------------

$molecule
read
$end

$rem
	jobtype 				freq
	exchange 				b97-d
	dft_d					empirical_grimme3
	basis 					gen ! def2-tzvpd
	max_scf_cycles 			200
	symmetry 				false
	sym_ignore 				true
	molden_format			true
	nbo						false
	scf_convergence 		8
	thresh					13
	geom_opt_tol_gradient 	100
	geom_opt_tol_energy     10
	GEOM_OPT_MAX_CYCLES		500
	thresh					13
	mem_static				3000
	mem_total				8000
	DFT_D3_RS6 				892
	DFT_D3_S8  				909
$end

$nbo
e2pert
$end

$basis ! def2-tzvpd
****
H     0
S   3   1.00
     34.061341000            0.60251978000E-02
      5.1235746000           0.45021094000E-01
      1.1646626000           0.20189726000
S   1   1.00
      0.32723041000          1.0000000
S   1   1.00
      0.10307241000          1.0000000
P   1   1.00
      0.80000000000          1.0000000
P   1   1.00
      0.95774129632E-01            1.0000000
****
C     0
S   6   1.00
  13575.3496820              0.22245814352E-03
   2035.2333680              0.17232738252E-02
    463.22562359             0.89255715314E-02
    131.20019598             0.35727984502E-01
     42.853015891            0.11076259931
     15.584185766            0.24295627626
S   2   1.00
      6.2067138508           0.41440263448
      2.5764896527           0.23744968655
S   1   1.00
      0.57696339419          1.0000000
S   1   1.00
      0.22972831358          1.0000000
S   1   1.00
      0.95164440028E-01            1.0000000
S   1   1.00
      0.48475401370E-01            1.0000000
P   4   1.00
     34.697232244            0.53333657805E-02
      7.9582622826           0.35864109092E-01
      2.3780826883           0.14215873329
      0.81433208183          0.34270471845
P   1   1.00
      0.28887547253          1.0000000
P   1   1.00
      0.10056823671          1.0000000
D   1   1.00
      1.0970000000           1.0000000
D   1   1.00
      0.31800000000          1.0000000
D   1   1.00
      0.90985336424E-01            1.0000000
F   1   1.00
      0.76100000000          1.0000000
****
N     0
S   6   1.00
  19730.8006470              0.21887984991E-03
   2957.8958745              0.16960708803E-02
    673.22133595             0.87954603538E-02
    190.68249494             0.35359382605E-01
     62.295441898            0.11095789217
     22.654161182            0.24982972552
S   2   1.00
      8.9791477428           0.40623896148
      3.6863002370           0.24338217176
S   1   1.00
      0.84660076805          1.0000000
S   1   1.00
      0.33647133771          1.0000000
S   1   1.00
      0.13647653675          1.0000000
S   1   1.00
      0.68441605847E-01            1.0000000
P   4   1.00
     49.200380510            0.55552416751E-02
     11.346790537            0.38052379723E-01
      3.4273972411           0.14953671029
      1.1785525134           0.34949305230
P   1   1.00
      0.41642204972          1.0000000
P   1   1.00
      0.14260826011          1.0000000
D   1   1.00
      1.6540000000           1.0000000
D   1   1.00
      0.46900000000          1.0000000
D   1   1.00
      0.12829642058          1.0000000
F   1   1.00
      1.0930000000           1.0000000
****
O     0
S   6   1.00
  27032.3826310              0.21726302465E-03
   4052.3871392              0.16838662199E-02
    922.32722710             0.87395616265E-02
    261.24070989             0.35239968808E-01
     85.354641351            0.11153519115
     31.035035245            0.25588953961
S   2   1.00
     12.260860728            0.39768730901
      4.9987076005           0.24627849430
S   1   1.00
      1.1703108158           1.0000000
S   1   1.00
      0.46474740994          1.0000000
S   1   1.00
      0.18504536357          1.0000000
S   1   1.00
      0.70288026270E-01            1.0000000
P   4   1.00
     63.274954801            0.60685103418E-02
     14.627049379            0.41912575824E-01
      4.4501223456           0.16153841088
      1.5275799647           0.35706951311
P   1   1.00
      0.52935117943          1.0000000
P   1   1.00
      0.17478421270          1.0000000
P   1   1.00
      0.51112745706E-01            1.0000000
D   1   1.00
      2.3140000000           1.0000000
D   1   1.00
      0.64500000000          1.0000000
D   1   1.00
      0.14696477366          1.0000000
F   1   1.00
      1.4280000000           1.0000000
****
$end
--------------------------------------------------------------

             Standard Nuclear Orientation (Angstroms)
    I     Atom           X                Y                Z
 ----------------------------------------------------------------
    1      H       0.0000000000    -0.0000255221     3.0745901475
    2      C       0.0000000000    -0.0000331981     2.0065862261
    3      C       0.0000000000    -0.0000418678     0.8007931110
    4      H       0.0000000000    -0.0000495335    -0.2672074558
 ----------------------------------------------------------------

   13     -77.3055902241      2.60E-09 Convergence criterion met
 Total energy in the final basis set = -77.3055902241

                    Orbital Energies (a.u.)
 --------------------------------------------------------------

 Alpha MOs
 -- Occupied --
 -9.912  -9.910  -0.686  -0.517  -0.449  -0.261  -0.261

          Ground-State Mulliken Net Atomic Charges

     Atom                 Charge (a.u.)
  ----------------------------------------
      1 H                     0.173606
      2 C                    -0.173612
      3 C                    -0.173603
      4 H                     0.173608
  ----------------------------------------
  Sum of atomic charges =     0.000000

                    Cartesian Multipole Moments
 -----------------------------------------------------------------
    Charge (ESU x 10^10)
                 0.0000
    Dipole Moment (Debye)
         X      -0.0000      Y       0.0000      Z       0.0000
       Tot       0.0000
    Quadrupole Moments (Debye-Ang)
        XX     -13.6240     XY       0.0000     YY     -13.6240
        XZ      -0.0000     YZ       0.0000     ZZ      -7.1700

 Frequency:       613.46                 613.46                 755.10
 Force Cnst:      0.3487                 0.3487                 0.3644
 Red. Mass:       1.5728                 1.5728                 1.0848
 IR Intens:        0.000                  0.000                 94.163
 Frequency:       755.10                2017.07                3366.46
 Force Cnst:      0.3644                 9.2514                 7.2436
 Red. Mass:       1.0848                 3.8594                 1.0848
 IR Intens:       94.163                  0.000                 74.185
 Frequency:      3461.03
 Force Cnst:      8.6443
 Red. Mass:       1.2248
 IR Intens:        0.000

 STANDARD THERMODYNAMIC QUANTITIES AT   298.15 K  AND     1.00 ATM

   This Molecule has  0 Imaginary Frequencies
   Zero point vibrational energy:       16.557 kcal/mol

 Q-Chem warning in module 0, line  385:

  SYM_IGNORE is turned on for a linear molecule

    We detect a D*h symmetry
   Atom    1 Element H  Has Mass    1.00783
   Atom    2 Element C  Has Mass   12.00000
   Atom    3 Element C  Has Mass   12.00000
   Atom    4 Element H  Has Mass    1.00783
   Molecular Mass:    26.015660 amu
   Principal axes and moments of inertia in amu*Bohr^2:
                             1           2           3
    Eigenvalues --        0.00000    51.24888    51.24888
          X               0.00000     0.00000     1.00000
          Y               0.00001     1.00000     0.00000
          Z               1.00000    -0.00001     0.00000
   Rotational Symmetry Number is   2
   The Molecule is a Symmetric Top
   Translational Enthalpy:        0.889 kcal/mol
   Rotational Enthalpy:           0.889 kcal/mol
   Vibrational Enthalpy:         16.865 kcal/mol
   gas constant (RT):             0.592 kcal/mol
   Translational Entropy:        35.704  cal/mol.K
   Rotational Entropy:           10.889  cal/mol.K
   Vibrational Entropy:           1.350  cal/mol.K

   Total Enthalpy:               19.235 kcal/mol
   Total Entropy:                47.943  cal/mol.K

 Total job time:  66.50s(wall), 83.64s(cpu)
        *  Thank you very much for using Q-Chem.  Have a nice day.  *
