 Q-Chem 4.2, Q-Chem, Inc., Pleasanton, CA (2014).
 Q-Chem 4.2.0 for Intel X86 EM64T Linux

User input:
--------------------------------------------------------------
$molecule
0 1
  C      1.38672132      0.26488984     -0.10394909
  C      0.47089772      1.33140776     -0.10986281
  C      0.92071019     -1.06096872     -0.07902903
  C     -0.46075796     -1.32072751     -0.06008169
  C     -0.91060210      1.07152525     -0.09090164
  C     -1.37643089     -0.25438752     -0.06601275
  H      1.63476423     -1.89412821     -0.07444185
  H     -0.82497915     -2.35573701     -0.04093523
  H     -1.62573229      1.90375052     -0.09554740
  H     -2.45479333     -0.45704378     -0.05125227
  H      2.46511822      0.46631336     -0.11892886
  H      0.83416037      2.36652129     -0.12915339
$end

$rem
	jobtype 				opt
	exchange 				b97-d
	dft_d					empirical_grimme3
	basis 					cc-pvdz
	max_scf_cycles 			200
	symmetry 				false
	sym_ignore 				true
	molden_format			true
	nbo						false
	scf_convergence 		8
	thresh					13
	geom_opt_tol_gradient 	100
	geom_opt_tol_energy     10
	GEOM_OPT_MAX_CYCLES		500
	thresh					13
	mem_static				3000
	mem_total				8000
	DFT_D3_RS6 				892
	DFT_D3_S8  				909
$end

$nbo
e2pert
$end

--------------------------------------------------------------

   13    -232.0887630988      7.92E-09 Convergence criterion met
 Total energy in the final basis set = -232.0887630988
 Final energy is   -232.088763098850
 **  OPTIMIZATION CONVERGED  **
 Total job time:  6.88s(wall), 52.67s(cpu)
        *  Thank you very much for using Q-Chem.  Have a nice day.  *
 Q-Chem 4.2, Q-Chem, Inc., Pleasanton, CA (2014).
 Q-Chem 4.2.0 for Intel X86 EM64T Linux

User input:
--------------------------------------------------------------

$molecule
read
$end

$rem
	jobtype 				freq
	exchange 				b97-d
	dft_d					empirical_grimme3
	basis 					cc-pvdz
	max_scf_cycles 			200
	symmetry 				false
	sym_ignore 				true
	molden_format			true
	nbo						false
	scf_convergence 		7
	thresh					13
	geom_opt_tol_gradient 	300
	geom_opt_tol_energy     300
	GEOM_OPT_MAX_CYCLES		500
	thresh					13
	mem_static				3000
	mem_total				8000
	DFT_D3_RS6 				892
	DFT_D3_S8  				909
	molden_format			true
	ideriv		1
$end

$nbo
e2pert
$end

--------------------------------------------------------------

   11    -232.0887631068      2.39E-08 Convergence criterion met
 Total energy in the final basis set = -232.0887631068
    7    -232.0887616363      4.51E-08 Convergence criterion met
 Total energy in the final basis set = -232.0887616363
    7    -232.0887620571      9.05E-08 Convergence criterion met
 Total energy in the final basis set = -232.0887620571
    7    -232.0887619200      5.64E-08 Convergence criterion met
 Total energy in the final basis set = -232.0887619200
    7    -232.0887620100      5.78E-08 Convergence criterion met
 Total energy in the final basis set = -232.0887620100
    6    -232.0887628794      8.39E-08 Convergence criterion met
 Total energy in the final basis set = -232.0887628794
 Total energy in the final basis set = -232.0887630804
    6    -232.0887630460      4.19E-08 Convergence criterion met
 Total energy in the final basis set = -232.0887630460
    6    -232.0887630212      5.10E-08 Convergence criterion met
 Total energy in the final basis set = -232.0887630212
    6    -232.0887628821      7.23E-08 Convergence criterion met
 Total energy in the final basis set = -232.0887628821
    6    -232.0887626977      9.27E-08 Convergence criterion met
 Total energy in the final basis set = -232.0887626977
    7    -232.0887624003      6.52E-08 Convergence criterion met
 Total energy in the final basis set = -232.0887624003
    6    -232.0887630832      7.43E-08 Convergence criterion met
 Total energy in the final basis set = -232.0887630832
    6    -232.0887630424      4.99E-08 Convergence criterion met
 Total energy in the final basis set = -232.0887630424

                    Orbital Energies (a.u.)
 --------------------------------------------------------------

 Alpha MOs
 -- Occupied --
 -9.919  -9.919  -9.919  -9.918  -9.918  -9.918  -0.773  -0.673
 -0.673  -0.540  -0.540  -0.464  -0.409  -0.392  -0.370  -0.370
 -0.320  -0.299  -0.299  -0.222  -0.221

          Ground-State Mulliken Net Atomic Charges

     Atom                 Charge (a.u.)
  ----------------------------------------
      1 C                     0.029139
      2 C                     0.028597
      3 C                     0.028856
      4 C                     0.028313
      5 C                     0.028878
      6 C                     0.028872
      7 H                    -0.028801
      8 H                    -0.028785
      9 H                    -0.028797
     10 H                    -0.028738
     11 H                    -0.028746
     12 H                    -0.028787
  ----------------------------------------
  Sum of atomic charges =     0.000000

                    Cartesian Multipole Moments
 -----------------------------------------------------------------
    Charge (ESU x 10^10)
                 0.0000
    Dipole Moment (Debye)
         X      -0.0003      Y      -0.0004      Z      -0.0007
       Tot       0.0009
    Quadrupole Moments (Debye-Ang)
        XX     -31.9317     XY       0.0016     YY     -31.9373
        XZ      -0.0769     YZ      -0.1052     ZZ     -38.9249

             Standard Nuclear Orientation (Angstroms)
    I     Atom           X                Y                Z
 ----------------------------------------------------------------
    1      C       1.3867213200     0.2648898400    -0.1039490900
    2      C       0.4708977200     1.3314077600    -0.1098628100
    3      C       0.9207101900    -1.0609687200    -0.0790290300
    4      C      -0.4607579600    -1.3207275100    -0.0600816900
    5      C      -0.9106021000     1.0715252500    -0.0909016400
    6      C      -1.3764308900    -0.2543875200    -0.0660127500
    7      H       1.6347642300    -1.8941282100    -0.0744418500
    8      H      -0.8249791500    -2.3557370100    -0.0409352300
    9      H      -1.6257322900     1.9037505200    -0.0955474000
   10      H      -2.4547933300    -0.4570437800    -0.0512522700
   11      H       2.4651182200     0.4663133600    -0.1189288600
   12      H       0.8341603700     2.3665212900    -0.1291533900
 ----------------------------------------------------------------

 Frequency:       401.57                 403.58                 604.55
 Force Cnst:      0.2732                 0.2777                 1.3117
 Red. Mass:       2.8749                 2.8939                 6.0912
 IR Intens:        0.000                  0.001                  0.000
 Frequency:       604.60                 676.09                 703.60
 Force Cnst:      1.3143                 0.2922                 1.1019
 Red. Mass:       6.1024                 1.0849                 3.7777
 IR Intens:        0.000                 71.823                  0.000
 Frequency:       843.11                 845.32                 959.80
 Force Cnst:      0.5228                 0.5256                 0.7458
 Red. Mass:       1.2483                 1.2483                 1.3740
 IR Intens:        0.000                  0.000                  0.000
 Frequency:       961.09                 989.88                 990.95
 Force Cnst:      0.7455                 3.8065                 3.4653
 Red. Mass:       1.3699                 6.5933                 5.9895
 IR Intens:        0.001                  0.000                  0.001
 Frequency:       995.39                1034.42                1037.20
 Force Cnst:      0.7199                 1.0494                 1.0634
 Red. Mass:       1.2332                 1.6645                 1.6777
 IR Intens:        0.000                  4.332                  4.252
 Frequency:      1151.20                1168.25                1169.76
 Force Cnst:      0.8204                 0.9068                 0.9109
 Red. Mass:       1.0507                 1.1277                 1.1299
 IR Intens:        0.001                  0.000                  0.000
 Frequency:      1332.51                1347.82                1469.46
 Force Cnst:      1.3060                 8.6537                 2.6284
 Red. Mass:       1.2484                 8.0851                 2.0660
 IR Intens:        0.000                  0.000                  5.291
 Frequency:      1472.26                1600.26                1600.89
 Force Cnst:      2.6130                 8.2947                 8.3593
 Red. Mass:       2.0461                 5.4976                 5.5360
 IR Intens:        5.174                  0.000                  0.000
 Frequency:      3109.39                3118.28                3122.32
 Force Cnst:      6.1663                 6.2279                 6.2437
 Red. Mass:       1.0825                 1.0871                 1.0870
 IR Intens:        0.574                  0.061                  0.059
 Frequency:      3135.51                3140.12                3149.26
 Force Cnst:      6.3470                 6.3655                 6.4297
 Red. Mass:       1.0957                 1.0957                 1.1003
 IR Intens:       53.298                 53.174                  0.446

 STANDARD THERMODYNAMIC QUANTITIES AT   298.15 K  AND     1.00 ATM

   This Molecule has  0 Imaginary Frequencies
   Zero point vibrational energy:       61.669 kcal/mol

   Atom    1 Element C  Has Mass   12.00000
   Atom    2 Element C  Has Mass   12.00000
   Atom    3 Element C  Has Mass   12.00000
   Atom    4 Element C  Has Mass   12.00000
   Atom    5 Element C  Has Mass   12.00000
   Atom    6 Element C  Has Mass   12.00000
   Atom    7 Element H  Has Mass    1.00783
   Atom    8 Element H  Has Mass    1.00783
   Atom    9 Element H  Has Mass    1.00783
   Atom   10 Element H  Has Mass    1.00783
   Atom   11 Element H  Has Mass    1.00783
   Atom   12 Element H  Has Mass    1.00783
   Molecular Mass:    78.046980 amu
   Principal axes and moments of inertia in amu*Bohr^2:
                             1           2           3
    Eigenvalues --      321.59372   321.74761   643.34133
          X               0.92938    -0.36896     0.01092
          Y               0.36879     0.92939     0.01492
          Z              -0.01565    -0.00984     0.99983
   Rotational Symmetry Number is   1
   The Molecule is an Asymmetric Top
   Translational Enthalpy:        0.889 kcal/mol
   Rotational Enthalpy:           0.889 kcal/mol
   Vibrational Enthalpy:         62.708 kcal/mol
   gas constant (RT):             0.592 kcal/mol
   Translational Entropy:        38.979  cal/mol.K
   Rotational Entropy:           25.701  cal/mol.K
   Vibrational Entropy:           4.680  cal/mol.K

   Total Enthalpy:               65.078 kcal/mol
   Total Entropy:                69.360  cal/mol.K

 Total job time:  320.02s(wall), 2351.99s(cpu)
        *  Thank you very much for using Q-Chem.  Have a nice day.  *
