 Q-Chem 4.2, Q-Chem, Inc., Pleasanton, CA (2014).
 Q-Chem 4.2.0 for Intel X86 EM64T Linux

User input:
--------------------------------------------------------------
$comment
$end

$molecule
0 1
  C      0.97127315     -0.65191417      0.79631230
  C      1.42362261      0.39967448      1.60275469
  C      0.51763689      1.47884481      1.91165164
  C     -0.78390405      1.43925180      1.39704999
  C     -1.21279816      0.37564324      0.59363016
  C     -0.33559175     -0.66860442      0.29294688
  O      2.69605124      0.41982235      2.09507181
  O      0.93827649      2.51656152      2.69157514
 Mg      2.75460035      2.10510374      2.92363352
  H      1.66740736     -1.45995597      0.57641748
  H     -1.45402040      2.26162388      1.64333491
  H     -2.23071997      0.36712331      0.20690701
  H     -0.66281212     -1.49897748     -0.33093122
  C      5.20437420      1.41967136      3.93940103
  H      5.35714745      2.36526713      3.39947981
  H      6.18155135      1.11480752      4.32384299
  H      4.54885330      1.55972840      4.81034077
  H      4.82635467      0.62980518      3.27904111
  C      3.58144104      3.37364073      0.55207827
  H      3.58955731      2.28932648      0.39324390
  H      2.56545286      3.70823806      0.79346483
  H      4.29314827      3.66166573      1.34196574
  H      3.90945152      3.87165454     -0.36489696
  C      2.91876027      4.42135145      4.43676765
  H      2.97626055      5.35420012      5.00438150
  H      3.73562667      4.44804474      3.70152566
  H      3.05300249      3.59864730      5.15225318
  H      1.93832640      4.36322419      3.95033621
$end

$rem
	jobtype 				opt
	exchange 				b97-d
	dft_d					empirical_grimme3
	basis 					gen ! def2-tzvp
	max_scf_cycles 			200
	symmetry 				false
	sym_ignore 				true
	molden_format			true
	nbo						false
	scf_convergence 		7
	thresh					13
	geom_opt2 				false
	geom_opt_tol_gradient 	50
	geom_opt_tol_energy     10
	GEOM_OPT_MAX_CYCLES		500
	thresh					13
	mem_static				3000
	mem_total				8000
	DFT_D3_RS6 				892
	DFT_D3_S8  				909
$end

$basis ! def2-tzvp
****
H     0
S   3   1.00
     34.0613410              0.60251978E-02
      5.1235746              0.45021094E-01
      1.1646626              0.20189726
S   1   1.00
      0.32723041             1.0000000
S   1   1.00
      0.10307241             1.0000000
P   1   1.00
      0.8000000              1.0000000
****
C     0
S   6   1.00
  13575.3496820              0.22245814352E-03
   2035.2333680              0.17232738252E-02
    463.22562359             0.89255715314E-02
    131.20019598             0.35727984502E-01
     42.853015891            0.11076259931
     15.584185766            0.24295627626
S   2   1.00
      6.2067138508           0.41440263448
      2.5764896527           0.23744968655
S   1   1.00
      0.57696339419          1.0000000
S   1   1.00
      0.22972831358          1.0000000
S   1   1.00
      0.95164440028E-01            1.0000000
P   4   1.00
     34.697232244            0.53333657805E-02
      7.9582622826           0.35864109092E-01
      2.3780826883           0.14215873329
      0.81433208183          0.34270471845
P   1   1.00
      0.28887547253          1.0000000
P   1   1.00
      0.10056823671          1.0000000
D   1   1.00
      1.09700000             1.0000000
D   1   1.00
      0.31800000             1.0000000
F   1   1.00
      0.76100000             1.0000000
****
N     0
S   6   1.00
  19730.8006470              0.21887984991E-03
   2957.8958745              0.16960708803E-02
    673.22133595             0.87954603538E-02
    190.68249494             0.35359382605E-01
     62.295441898            0.11095789217
     22.654161182            0.24982972552
S   2   1.00
      8.9791477428           0.40623896148
      3.6863002370           0.24338217176
S   1   1.00
      0.84660076805          1.0000000
S   1   1.00
      0.33647133771          1.0000000
S   1   1.00
      0.13647653675          1.0000000
P   4   1.00
     49.200380510            0.55552416751E-02
     11.346790537            0.38052379723E-01
      3.4273972411           0.14953671029
      1.1785525134           0.34949305230
P   1   1.00
      0.41642204972          1.0000000
P   1   1.00
      0.14260826011          1.0000000
D   1   1.00
      1.65400000             1.0000000
D   1   1.00
      0.46900000             1.0000000
F   1   1.00
      1.09300000             1.0000000
****
O     0
S   6   1.00
  27032.3826310              0.21726302465E-03
   4052.3871392              0.16838662199E-02
    922.32722710             0.87395616265E-02
    261.24070989             0.35239968808E-01
     85.354641351            0.11153519115
     31.035035245            0.25588953961
S   2   1.00
     12.260860728            0.39768730901
      4.9987076005           0.24627849430
S   1   1.00
      1.1703108158           1.0000000
S   1   1.00
      0.46474740994          1.0000000
S   1   1.00
      0.18504536357          1.0000000
P   4   1.00
     63.274954801            0.60685103418E-02
     14.627049379            0.41912575824E-01
      4.4501223456           0.16153841088
      1.5275799647           0.35706951311
P   1   1.00
      0.52935117943          1.0000000
P   1   1.00
      0.17478421270          1.0000000
D   1   1.00
      2.31400000             1.0000000
D   1   1.00
      0.64500000             1.0000000
F   1   1.00
      1.42800000             1.0000000
****
Mg     0
S   7   1.00
  31438.3495550              0.60912311326E-03
   4715.5153354              0.47066196465E-02
   1073.1629247              0.24135820657E-01
    303.57238768             0.93628959834E-01
     98.626251042            0.26646742093
     34.943808417            0.47890929917
     12.859785199            0.33698490286
S   3   1.00
     64.876913004            0.19180889307E-01
     19.725520777            0.90913704392E-01
      2.8951804339          -0.39563756125
S   2   1.00
      1.1960454710           1.6827603373
      0.54329451156          0.52141091954
S   1   1.00
      0.10099104092          1.0000000
S   1   1.00
      0.36865728085E-01            1.0000000
P   5   1.00
    179.87189612             0.53799549018E-02
     42.120069376            0.39318014098E-01
     13.120503032            0.15740129476
      4.6257503609           0.35919094128
      1.6695211016           0.45533379310
P   1   1.00
      0.58551012105          1.0000000
P   1   1.00
      0.18914796195          1.0000000
P   1   1.00
      0.53768755187E-01            1.0000000
D   1   1.00
      3.4440000              1.0000000
D   1   1.00
      0.2900000              1.0000000
D   1   1.00
      0.0700000              1.0000000
****
Ca     0
S   8   1.00
 172517.3268500              0.23317502546E-03
  25861.5192750              0.18076521980E-02
   5885.6618668              0.93943844255E-02
   1665.9730031              0.38108409009E-01
    542.36718148             0.12331203853
    194.57803492             0.29004470954
     75.303597636            0.40587151157
     29.574062589            0.20398410743
S   4   1.00
    191.20074660            -0.24419759759E-01
     58.840299883           -0.11547027448
      8.9642540845           0.56356636717
      3.6856960541           0.56709682704
S   2   1.00
      5.2464289726          -0.22825334325
      0.84862621528          0.72625219172
S   1   1.00
      0.36743300538          1.0000000
S   1   1.00
      0.66821582613E-01            1.0000000
S   1   1.00
      0.26759730445E-01            1.0000000
P   6   1.00
    836.97262058             0.25258346092E-02
    197.93040142             0.20076506686E-01
     63.135558054            0.91302987366E-01
     23.282687170            0.25247029915
      9.1176444932           0.39426326344
      3.6336120139           0.23011559492
P   3   1.00
     13.494163120           -0.26495021951E-01
      1.8139259790           0.55088108210
      0.71981826006          1.0280616620
P   1   1.00
      0.27629576992          1.0000000
P   1   1.00
      0.0749790              1.0000000
P   1   1.00
      0.0269270              1.0000000
D   2   1.00
      5.4979093879           0.73770011433E-01
      1.3177128032           0.26052853169
D   1   1.00
      0.32188682649          1.0000000
D   1   1.00
      0.70528614919E-01            1.0000000
****
$end

--------------------------------------------------------------

   22    -703.0282306514      4.24E-08 Convergence criterion met
 Total energy in the final basis set = -703.0282306514
 Final energy is   -703.028230651395
 **  OPTIMIZATION CONVERGED  **
 Total job time:  233.18s(wall), 2163.18s(cpu)
        *  Thank you very much for using Q-Chem.  Have a nice day.  *

User input: 2 of 3

                  Welcome to Q-Chem
     A Quantum Leap Into The Future Of Chemistry

 Q-Chem 4.2, Q-Chem, Inc., Pleasanton, CA (2014).

 Y. Shao,  Z. Gan,  E. Epifanovsky,  A. T. B. Gilbert,  M. Wormit,
 J. Kussmann,  A. W. Lange,  A. Behn,  J. Deng,  X. Feng,  D. Ghosh,
 M. Goldey,  P. R. Horn,  L. D. Jacobson,  I. Kaliman,  R. Z. Khaliullin,
 T. Kus,  A. Landau,  J. Liu,  E. I. Proynov,  Y. M. Rhee,  R. M. Richard,
 M. A. Rohrdanz,  R. P. Steele,  E. J. Sundstrom,  H. L. Woodcock III,
 P. M. Zimmerman,  D. Zuev,  B. Albrecht,  E. Alguire,  B. Austin,
 G. J. O. Beran,  Y. A. Bernard,  E. Berquist,  K. Brandhorst,
 K. B. Bravaya,  S. T. Brown,  D. Casanova,  C.-M. Chang,  Y. Chen,
 S. H. Chien,  K. D. Closser,  D. L. Crittenden,  M. Diedenhofen,
 R. A. DiStasio Jr.,  H. Do,  A. D. Dutoi,  R. G. Edgar,  S. Fatehi,
 L. Fusti-Molnar,  A. Ghysels,  A. Golubeva-Zadorozhnaya,  J. Gomes,
 M. W. D. Hanson-Heine,  P. H. P. Harbach,  A. W. Hauser,  E. G. Hohenstein,
 Z. C. Holden,  T.-C. Jagau,  H. Ji,  B. Kaduk,  K. Khistyaev,  Jaehoon Kim,
 Jihan Kim,  R. A. King,  P. Klunzinger,  D. Kosenkov,  T. Kowalczyk,
 C. M. Krauter,  K. U. Lao,  A. Laurent,  K. V. Lawler,  S. V. Levchenko,
 C. Y. Lin,  F. Liu,  E. Livshits,  R. C. Lochan,  A. Luenser,  P. Manohar,
 S. F. Manzer,  S.-P. Mao,  N. Mardirossian,  A. V. Marenich,  S. A. Maurer,
 N. J. Mayhall,  C. M. Oana,  R. Olivares-Amaya,  D. P. O'Neill,
 J. A. Parkhill,  T. M. Perrine,  R. Peverati,  P. A. Pieniazek,  A. Prociuk,
 D. R. Rehn,  E. Rosta,  N. J. Russ,  N. Sergueev,  S. M. Sharada,
 S. Sharma,  D. W. Small,  A. Sodt,  T. Stein,  D. Stuck,  Y.-C. Su,
 A. J. W. Thom,  T. Tsuchimochi,  L. Vogt,  O. Vydrov,  T. Wang,
 M. A. Watson,  J. Wenzel,  A. White,  C. F. Williams,  V. Vanovschi,
 S. Yeganeh,  S. R. Yost,  Z.-Q. You,  I. Y. Zhang,  X. Zhang,  Y. Zhao,
 B. R. Brooks,  G. K. L. Chan,  D. M. Chipman,  C. J. Cramer,
 W. A. Goddard III,  M. S. Gordon,  W. J. Hehre,  A. Klamt,
 H. F. Schaefer III,  M. W. Schmidt,  C. D. Sherrill,  D. G. Truhlar,
 A. Warshel,  X. Xu,  A. Aspuru-Guzik,  R. Baer,  A. T. Bell,  N. A. Besley,
 J.-D. Chai,  A. Dreuw,  B. D. Dunietz,  T. R. Furlani,  S. R. Gwaltney,
 C.-P. Hsu,  Y. Jung,  J. Kong,  D. S. Lambrecht,  W. Liang,  C. Ochsenfeld,
 V. A. Rassolov,  L. V. Slipchenko,  J. E. Subotnik,  T. Van Voorhis,
 J. M. Herbert,  A. I. Krylov,  P. M. W. Gill,  M. Head-Gordon

 Contributors to earlier versions of Q-Chem not listed above:
 R. D. Adamson,  J. Baker,  E. F. C. Byrd,  A. K. Chakraborty,  C.-L. Cheng,
 H. Dachsel,  R. J. Doerksen,  G. Hawkins,  A. Heyden,  S. Hirata,
 G. Kedziora,  F. J. Keil,  C. Kelley,  P. P. Korambath,  W. Kurlancheek,
 A. M. Lee,  M. S. Lee,  D. Liotard,  I. Lotan,  P. E. Maslen,  N. Nair,
 D. Neuhauser,  R. Olson,  B. Peters,  J. Ritchie,  N. E. Schultz,
 N. Shenvi,  A. C. Simmonett,  K. S. Thanthiriwatte,  Q. Wu,  W. Zhang

 Q-Chem 4.2.0 for Intel X86 EM64T Linux

 Parts of Q-Chem use Armadillo 4.100.2 (Dirt Cruiser).
 http://arma.sourceforge.net/

 Q-Chem begins on Sat Jul 19 22:25:36 2014

Host: compute-0-7.local
0

     Scratch files written to /scratch/tsivion/cat-mg-3Me-opt-freq.in20140719222137//
 Jun314 |home|tsivion|software|qchem411|libmdc|qstr_info.C -1
Finally everything over in PARseQInput

--------------------------------------------------------------
User input:
--------------------------------------------------------------

$comment
$end

$molecule
read
$end

$rem
	jobtype 				freq
	exchange 				b97-d
	scf_guess				read
	dft_d					empirical_grimme3
	basis 					gen ! def2-tzvp
	max_scf_cycles 			200
	symmetry 				false
	sym_ignore 				true
	molden_format			true
	nbo						false
	scf_convergence 		8
	thresh					13
	mem_static				3000
	mem_total				8000
	DFT_D3_RS6 				892
	DFT_D3_S8  				909
$end

$basis ! def2-tzvp
****
H     0
S   3   1.00
     34.0613410              0.60251978E-02
      5.1235746              0.45021094E-01
      1.1646626              0.20189726
S   1   1.00
      0.32723041             1.0000000
S   1   1.00
      0.10307241             1.0000000
P   1   1.00
      0.8000000              1.0000000
****
C     0
S   6   1.00
  13575.3496820              0.22245814352E-03
   2035.2333680              0.17232738252E-02
    463.22562359             0.89255715314E-02
    131.20019598             0.35727984502E-01
     42.853015891            0.11076259931
     15.584185766            0.24295627626
S   2   1.00
      6.2067138508           0.41440263448
      2.5764896527           0.23744968655
S   1   1.00
      0.57696339419          1.0000000
S   1   1.00
      0.22972831358          1.0000000
S   1   1.00
      0.95164440028E-01            1.0000000
P   4   1.00
     34.697232244            0.53333657805E-02
      7.9582622826           0.35864109092E-01
      2.3780826883           0.14215873329
      0.81433208183          0.34270471845
P   1   1.00
      0.28887547253          1.0000000
P   1   1.00
      0.10056823671          1.0000000
D   1   1.00
      1.09700000             1.0000000
D   1   1.00
      0.31800000             1.0000000
F   1   1.00
      0.76100000             1.0000000
****
N     0
S   6   1.00
  19730.8006470              0.21887984991E-03
   2957.8958745              0.16960708803E-02
    673.22133595             0.87954603538E-02
    190.68249494             0.35359382605E-01
     62.295441898            0.11095789217
     22.654161182            0.24982972552
S   2   1.00
      8.9791477428           0.40623896148
      3.6863002370           0.24338217176
S   1   1.00
      0.84660076805          1.0000000
S   1   1.00
      0.33647133771          1.0000000
S   1   1.00
      0.13647653675          1.0000000
P   4   1.00
     49.200380510            0.55552416751E-02
     11.346790537            0.38052379723E-01
      3.4273972411           0.14953671029
      1.1785525134           0.34949305230
P   1   1.00
      0.41642204972          1.0000000
P   1   1.00
      0.14260826011          1.0000000
D   1   1.00
      1.65400000             1.0000000
D   1   1.00
      0.46900000             1.0000000
F   1   1.00
      1.09300000             1.0000000
****
O     0
S   6   1.00
  27032.3826310              0.21726302465E-03
   4052.3871392              0.16838662199E-02
    922.32722710             0.87395616265E-02
    261.24070989             0.35239968808E-01
     85.354641351            0.11153519115
     31.035035245            0.25588953961
S   2   1.00
     12.260860728            0.39768730901
      4.9987076005           0.24627849430
S   1   1.00
      1.1703108158           1.0000000
S   1   1.00
      0.46474740994          1.0000000
S   1   1.00
      0.18504536357          1.0000000
P   4   1.00
     63.274954801            0.60685103418E-02
     14.627049379            0.41912575824E-01
      4.4501223456           0.16153841088
      1.5275799647           0.35706951311
P   1   1.00
      0.52935117943          1.0000000
P   1   1.00
      0.17478421270          1.0000000
D   1   1.00
      2.31400000             1.0000000
D   1   1.00
      0.64500000             1.0000000
F   1   1.00
      1.42800000             1.0000000
****
Mg     0
S   7   1.00
  31438.3495550              0.60912311326E-03
   4715.5153354              0.47066196465E-02
   1073.1629247              0.24135820657E-01
    303.57238768             0.93628959834E-01
     98.626251042            0.26646742093
     34.943808417            0.47890929917
     12.859785199            0.33698490286
S   3   1.00
     64.876913004            0.19180889307E-01
     19.725520777            0.90913704392E-01
      2.8951804339          -0.39563756125
S   2   1.00
      1.1960454710           1.6827603373
      0.54329451156          0.52141091954
S   1   1.00
      0.10099104092          1.0000000
S   1   1.00
      0.36865728085E-01            1.0000000
P   5   1.00
    179.87189612             0.53799549018E-02
     42.120069376            0.39318014098E-01
     13.120503032            0.15740129476
      4.6257503609           0.35919094128
      1.6695211016           0.45533379310
P   1   1.00
      0.58551012105          1.0000000
P   1   1.00
      0.18914796195          1.0000000
P   1   1.00
      0.53768755187E-01            1.0000000
D   1   1.00
      3.4440000              1.0000000
D   1   1.00
      0.2900000              1.0000000
D   1   1.00
      0.0700000              1.0000000
****
Ca     0
S   8   1.00
 172517.3268500              0.23317502546E-03
  25861.5192750              0.18076521980E-02
   5885.6618668              0.93943844255E-02
   1665.9730031              0.38108409009E-01
    542.36718148             0.12331203853
    194.57803492             0.29004470954
     75.303597636            0.40587151157
     29.574062589            0.20398410743
S   4   1.00
    191.20074660            -0.24419759759E-01
     58.840299883           -0.11547027448
      8.9642540845           0.56356636717
      3.6856960541           0.56709682704
S   2   1.00
      5.2464289726          -0.22825334325
      0.84862621528          0.72625219172
S   1   1.00
      0.36743300538          1.0000000
S   1   1.00
      0.66821582613E-01            1.0000000
S   1   1.00
      0.26759730445E-01            1.0000000
P   6   1.00
    836.97262058             0.25258346092E-02
    197.93040142             0.20076506686E-01
     63.135558054            0.91302987366E-01
     23.282687170            0.25247029915
      9.1176444932           0.39426326344
      3.6336120139           0.23011559492
P   3   1.00
     13.494163120           -0.26495021951E-01
      1.8139259790           0.55088108210
      0.71981826006          1.0280616620
P   1   1.00
      0.27629576992          1.0000000
P   1   1.00
      0.0749790              1.0000000
P   1   1.00
      0.0269270              1.0000000
D   2   1.00
      5.4979093879           0.73770011433E-01
      1.3177128032           0.26052853169
D   1   1.00
      0.32188682649          1.0000000
D   1   1.00
      0.70528614919E-01            1.0000000
****
$end

--------------------------------------------------------------

    3    -703.0282306526      5.06E-09 Convergence criterion met
 Total energy in the final basis set = -703.0282306526
 Frequency:        14.82                  32.88                  53.95
 Force Cnst:      0.0005                 0.0028                 0.0059
 Red. Mass:       3.5863                 4.4308                 3.4283
 IR Intens:        0.807                  1.144                  2.279
 Frequency:        63.46                  71.85                  81.27
 Force Cnst:      0.0069                 0.0077                 0.0091
 Red. Mass:       2.9165                 2.5220                 2.3355
 IR Intens:        3.287                  2.600                  7.761
 Frequency:        92.45                  99.84                 104.79
 Force Cnst:      0.0069                 0.0188                 0.0148
 Red. Mass:       1.3674                 3.2062                 2.2933
 IR Intens:        2.428                 24.834                  4.662
 Frequency:       122.18                 135.71                 138.92
 Force Cnst:      0.0139                 0.0149                 0.0194
 Red. Mass:       1.5860                 1.3751                 1.7102
 IR Intens:        7.852                 11.653                 17.245
 Frequency:       146.77                 156.88                 176.51
 Force Cnst:      0.0185                 0.0290                 0.0213
 Red. Mass:       1.4601                 1.9984                 1.1629
 IR Intens:        6.786                  1.176                  1.902
 Frequency:       184.70                 192.69                 201.91
 Force Cnst:      0.0208                 0.1197                 0.0255
 Red. Mass:       1.0367                 5.4731                 1.0637
 IR Intens:        0.138                  0.168                  1.239
 Frequency:       204.82                 249.64                 307.10
 Force Cnst:      0.0262                 0.0379                 0.3044
 Red. Mass:       1.0589                 1.0332                 5.4778
 IR Intens:        0.834                  0.120                  9.184
 Frequency:       326.59                 384.21                 456.72
 Force Cnst:      0.8667                 0.5692                 0.3880
 Red. Mass:      13.7906                 6.5444                 3.1575
 IR Intens:       99.564                 28.946                  0.378
 Frequency:       542.55                 548.68                 558.65
 Force Cnst:      1.5867                 1.6249                 0.9654
 Red. Mass:       9.1488                 9.1610                 5.2504
 IR Intens:        0.147                  0.194                  0.002
 Frequency:       666.95                 689.22                 719.41
 Force Cnst:      2.8885                 2.9911                 1.0062
 Red. Mass:      11.0215                10.6874                 3.2999
 IR Intens:       41.197                 36.394                  0.859
 Frequency:       721.72                 759.79                 821.27
 Force Cnst:      0.3840                 2.2477                 0.6880
 Red. Mass:       1.2512                 6.6085                 1.7314
 IR Intens:       74.510                 85.054                  0.045
 Frequency:       848.72                 864.63                 868.02
 Force Cnst:      2.7468                 0.6047                 0.4979
 Red. Mass:       6.4723                 1.3729                 1.1217
 IR Intens:       36.408                  8.154                  0.005
 Frequency:      1022.79                1090.76                1148.11
 Force Cnst:      1.2205                 1.3900                 0.8511
 Red. Mass:       1.9802                 1.9829                 1.0959
 IR Intens:       10.177                 32.293                 11.984
 Frequency:      1173.22                1226.92                1260.41
 Force Cnst:      2.2469                 5.2441                 1.5746
 Red. Mass:       2.7706                 5.9127                 1.6823
 IR Intens:       30.461                491.443                  8.581
 Frequency:      1295.95                1299.24                1303.45
 Force Cnst:      1.1624                 4.0134                 1.1973
 Red. Mass:       1.1747                 4.0353                 1.1961
 IR Intens:       12.161                  1.304                 34.522
 Frequency:      1305.33                1311.47                1313.07
 Force Cnst:      1.1817                 1.1922                 1.1891
 Red. Mass:       1.1771                 1.1765                 1.1705
 IR Intens:       19.956                 44.182                 28.126
 Frequency:      1316.64                1330.96                1336.02
 Force Cnst:      1.2052                 1.2246                 1.2342
 Red. Mass:       1.1800                 1.1734                 1.1735
 IR Intens:       21.796                  1.277                 16.736
 Frequency:      1342.35                1444.91                1455.87
 Force Cnst:      1.2448                 2.8417                 4.2589
 Red. Mass:       1.1725                 2.3102                 3.4104
 IR Intens:       27.248                  8.669                169.615
 Frequency:      1525.59                1532.80                1538.06
 Force Cnst:      1.3846                 1.4069                 1.4063
 Red. Mass:       1.0097                 1.0163                 1.0090
 IR Intens:        2.038                  1.456                  4.210
 Frequency:      1541.61                1543.33                1547.53
 Force Cnst:      1.4172                 1.4221                 1.4563
 Red. Mass:       1.0121                 1.0133                 1.0321
 IR Intens:        2.729                  0.871                  0.866
 Frequency:      1550.04                1576.12                2938.68
 Force Cnst:      6.3707                 8.2248                 5.1537
 Red. Mass:       4.5004                 5.6195                 1.0129
 IR Intens:        0.064                 15.168                 24.229
 Frequency:      2941.41                2948.55                3038.24
 Force Cnst:      5.1690                 5.1768                 5.9351
 Red. Mass:       1.0140                 1.0106                 1.0913
 IR Intens:       25.294                  4.959                 30.281
 Frequency:      3040.68                3048.55                3064.07
 Force Cnst:      5.9884                 6.0205                 6.0834
 Red. Mass:       1.0993                 1.0995                 1.0998
 IR Intens:        2.935                 19.871                 18.458
 Frequency:      3070.28                3078.68                3087.54
 Force Cnst:      6.0990                 6.1549                 6.1646
 Red. Mass:       1.0981                 1.1022                 1.0976
 IR Intens:       18.154                  3.088                  0.710
 Frequency:      3090.93                3091.86                3098.26
 Force Cnst:      6.1889                 6.1912                 6.1286
 Red. Mass:       1.0995                 1.0992                 1.0836
 IR Intens:        9.506                  0.183                  3.440
 Frequency:      3112.78                3121.78                3132.53
 Force Cnst:      6.2054                 6.2679                 6.3352
 Red. Mass:       1.0870                 1.0916                 1.0958
 IR Intens:       16.036                 50.259                 32.448

 STANDARD THERMODYNAMIC QUANTITIES AT   298.15 K  AND     1.00 ATM

   This Molecule has  0 Imaginary Frequencies
   Zero point vibrational energy:      138.451 kcal/mol

   Atom    1 Element C  Has Mass   12.00000
   Atom    2 Element C  Has Mass   12.00000
   Atom    3 Element C  Has Mass   12.00000
   Atom    4 Element C  Has Mass   12.00000
   Atom    5 Element C  Has Mass   12.00000
   Atom    6 Element C  Has Mass   12.00000
   Atom    7 Element O  Has Mass   15.99491
   Atom    8 Element O  Has Mass   15.99491
   Atom    9 Element Mg Has Mass   23.98504
   Atom   10 Element H  Has Mass    1.00783
   Atom   11 Element H  Has Mass    1.00783
   Atom   12 Element H  Has Mass    1.00783
   Atom   13 Element H  Has Mass    1.00783
   Atom   14 Element C  Has Mass   12.00000
   Atom   15 Element H  Has Mass    1.00783
   Atom   16 Element H  Has Mass    1.00783
   Atom   17 Element H  Has Mass    1.00783
   Atom   18 Element H  Has Mass    1.00783
   Atom   19 Element C  Has Mass   12.00000
   Atom   20 Element H  Has Mass    1.00783
   Atom   21 Element H  Has Mass    1.00783
   Atom   22 Element H  Has Mass    1.00783
   Atom   23 Element H  Has Mass    1.00783
   Atom   24 Element C  Has Mass   12.00000
   Atom   25 Element H  Has Mass    1.00783
   Atom   26 Element H  Has Mass    1.00783
   Atom   27 Element H  Has Mass    1.00783
   Atom   28 Element H  Has Mass    1.00783
   Molecular Mass:   180.100140 amu
   Principal axes and moments of inertia in amu*Bohr^2:
                             1           2           3
    Eigenvalues --     1430.05452  3802.47293  4301.40163
          X               0.73232    -0.62013    -0.28132
          Y               0.48827     0.76616    -0.41784
          Z               0.47465     0.16864     0.86387
   Rotational Symmetry Number is   1
   The Molecule is an Asymmetric Top
   Translational Enthalpy:        0.889 kcal/mol
   Rotational Enthalpy:           0.889 kcal/mol
   Vibrational Enthalpy:        149.042 kcal/mol
   gas constant (RT):             0.592 kcal/mol
   Translational Entropy:        41.472  cal/mol.K
   Rotational Entropy:           31.525  cal/mol.K
   Vibrational Entropy:          76.036  cal/mol.K

   Total Enthalpy:              151.412 kcal/mol
   Total Entropy:               149.033  cal/mol.K

        *  Thank you very much for using Q-Chem.  Have a nice day.  *
 Q-Chem 4.2, Q-Chem, Inc., Pleasanton, CA (2014).
 Q-Chem 4.2.0 for Intel X86 EM64T Linux

             Standard Nuclear Orientation (Angstroms)
    I     Atom           X                Y                Z
 ----------------------------------------------------------------
    1      C       0.9712731500    -0.6519141700     0.7963123000
    2      C       1.4236226100     0.3996744800     1.6027546900
    3      C       0.5176368900     1.4788448100     1.9116516400
    4      C      -0.7839040500     1.4392518000     1.3970499900
    5      C      -1.2127981600     0.3756432400     0.5936301600
    6      C      -0.3355917500    -0.6686044200     0.2929468800
    7      O       2.6960512400     0.4198223500     2.0950718100
    8      O       0.9382764900     2.5165615200     2.6915751400
    9      Mg      2.7546003500     2.1051037400     2.9236335200
   10      H       1.6674073600    -1.4599559700     0.5764174800
   11      H      -1.4540204000     2.2616238800     1.6433349100
   12      H      -2.2307199700     0.3671233100     0.2069070100
   13      H      -0.6628121200    -1.4989774800    -0.3309312200
   14      C       5.2043742000     1.4196713600     3.9394010300
   15      H       5.3571474500     2.3652671300     3.3994798100
   16      H       6.1815513500     1.1148075200     4.3238429900
   17      H       4.5488533000     1.5597284000     4.8103407700
   18      H       4.8263546700     0.6298051800     3.2790411100
   19      C       3.5814410400     3.3736407300     0.5520782700
   20      H       3.5895573100     2.2893264800     0.3932439000
   21      H       2.5654528600     3.7082380600     0.7934648300
   22      H       4.2931482700     3.6616657300     1.3419657400
   23      H       3.9094515200     3.8716545400    -0.3648969600
   24      C       2.9187602700     4.4213514500     4.4367676500
   25      H       2.9762605500     5.3542001200     5.0043815000
   26      H       3.7356266700     4.4480447400     3.7015256600
   27      H       3.0530024900     3.5986473000     5.1522531800
   28      H       1.9383264000     4.3632241900     3.9503362100
 ----------------------------------------------------------------

    9    -698.9587718283      3.58E-05 Convergence criterion met
   14    -703.0318176688      4.98E-09 Convergence criterion met

                    Orbital Energies (a.u.)
 --------------------------------------------------------------

 Alpha MOs
 -- Occupied --
-46.226 -18.698 -18.697  -9.944  -9.941  -9.919  -9.909  -9.909
 -9.856  -9.856  -9.854  -9.854  -2.978  -1.771  -1.769  -1.765
 -0.888  -0.856  -0.717  -0.694  -0.688  -0.667  -0.623  -0.603
 -0.501  -0.483  -0.423  -0.420  -0.419  -0.410  -0.409  -0.400
 -0.399  -0.391  -0.387  -0.382  -0.381  -0.367  -0.339  -0.332
 -0.326  -0.284  -0.282  -0.263  -0.242  -0.224  -0.209  -0.164
 -0.133

          Ground-State Mulliken Net Atomic Charges

     Atom                 Charge (a.u.)
  ----------------------------------------
      1 C                    -0.602476
      2 C                     0.953514
      3 C                     0.936257
      4 C                    -0.597644
      5 C                    -0.558450
      6 C                    -0.564126
      7 O                    -1.034451
      8 O                    -0.976834
      9 Mg                    0.840763
     10 H                     0.314272
     11 H                     0.311722
     12 H                     0.320898
     13 H                     0.319727
     14 C                    -1.193770
     15 H                     0.386715
     16 H                     0.254199
     17 H                     0.313325
     18 H                     0.419225
     19 C                    -1.356197
     20 H                     0.359057
     21 H                     0.360858
     22 H                     0.338409
     23 H                     0.260251
     24 C                    -1.181845
     25 H                     0.252184
     26 H                     0.381752
     27 H                     0.314476
     28 H                     0.428190
  ----------------------------------------
  Sum of atomic charges =    -0.000000

                    Cartesian Multipole Moments
 -----------------------------------------------------------------
    Charge (ESU x 10^10)
                 0.0000
    Dipole Moment (Debye)
         X       7.5682      Y       5.1559      Z       4.0734
       Tot      10.0227
    Quadrupole Moments (Debye-Ang)
        XX     -45.7273     XY      26.3770     YY     -61.7040
        XZ      29.8932     YZ      19.6010     ZZ     -55.4993

 Total job time:  240.25s(wall), 1955.43s(cpu)
        *  Thank you very much for using Q-Chem.  Have a nice day.  *
