 Q-Chem 4.2, Q-Chem, Inc., Pleasanton, CA (2014).
 Q-Chem 4.2.0 for Intel X86 EM64T Linux

User input:
--------------------------------------------------------------
$molecule
0 1
  C      0.85635996      0.57076860     -0.02943521
  C     -0.37746376      1.19271119      0.00442730
  C     -1.33015972      0.22596708      0.43742961
  C     -0.65208780     -0.95754690      0.65553416
  H     -2.39391582      0.37365094      0.57550365
  H     -0.57622906      2.22351736     -0.25923506
  N      0.67427980     -0.73532647      0.36680156
  H      1.83446609      0.93884933     -0.30655991
  H     -0.99950107     -1.92510948      0.99248025
  H      1.40400756     -1.42560324      0.44291520
  H     -0.18311300      0.36880981      3.01975525
  H      0.16588682      0.51888179      3.66345319
$end

$rem
	jobtype 				freq
	exchange 				b97-d
	dft_d					empirical_grimme3
	basis 					gen ! def2-tzvpd
	max_scf_cycles 			200
	symmetry 				false
	sym_ignore 				true
	molden_format			true
	nbo						false
	scf_convergence 		8
	thresh					13
	geom_opt_tol_gradient 	10
	geom_opt_tol_energy     10
	GEOM_OPT_MAX_CYCLES		500
	thresh					13
	mem_static				3000
	mem_total				8000
	DFT_D3_RS6 				892
	DFT_D3_S8  				909
	ideriv					1
	fdiff_stepsize 			100
$end

$nbo
e2pert
$end

$basis ! def2-tzvpd
****
H     0
S   3   1.00
     34.061341000            0.60251978000E-02
      5.1235746000           0.45021094000E-01
      1.1646626000           0.20189726000
S   1   1.00
      0.32723041000          1.0000000
S   1   1.00
      0.10307241000          1.0000000
P   1   1.00
      0.80000000000          1.0000000
P   1   1.00
      0.95774129632E-01            1.0000000
****
C     0
S   6   1.00
  13575.3496820              0.22245814352E-03
   2035.2333680              0.17232738252E-02
    463.22562359             0.89255715314E-02
    131.20019598             0.35727984502E-01
     42.853015891            0.11076259931
     15.584185766            0.24295627626
S   2   1.00
      6.2067138508           0.41440263448
      2.5764896527           0.23744968655
S   1   1.00
      0.57696339419          1.0000000
S   1   1.00
      0.22972831358          1.0000000
S   1   1.00
      0.95164440028E-01            1.0000000
S   1   1.00
      0.48475401370E-01            1.0000000
P   4   1.00
     34.697232244            0.53333657805E-02
      7.9582622826           0.35864109092E-01
      2.3780826883           0.14215873329
      0.81433208183          0.34270471845
P   1   1.00
      0.28887547253          1.0000000
P   1   1.00
      0.10056823671          1.0000000
D   1   1.00
      1.0970000000           1.0000000
D   1   1.00
      0.31800000000          1.0000000
D   1   1.00
      0.90985336424E-01            1.0000000
F   1   1.00
      0.76100000000          1.0000000
****
N     0
S   6   1.00
  19730.8006470              0.21887984991E-03
   2957.8958745              0.16960708803E-02
    673.22133595             0.87954603538E-02
    190.68249494             0.35359382605E-01
     62.295441898            0.11095789217
     22.654161182            0.24982972552
S   2   1.00
      8.9791477428           0.40623896148
      3.6863002370           0.24338217176
S   1   1.00
      0.84660076805          1.0000000
S   1   1.00
      0.33647133771          1.0000000
S   1   1.00
      0.13647653675          1.0000000
S   1   1.00
      0.68441605847E-01            1.0000000
P   4   1.00
     49.200380510            0.55552416751E-02
     11.346790537            0.38052379723E-01
      3.4273972411           0.14953671029
      1.1785525134           0.34949305230
P   1   1.00
      0.41642204972          1.0000000
P   1   1.00
      0.14260826011          1.0000000
D   1   1.00
      1.6540000000           1.0000000
D   1   1.00
      0.46900000000          1.0000000
D   1   1.00
      0.12829642058          1.0000000
F   1   1.00
      1.0930000000           1.0000000
****
O     0
S   6   1.00
  27032.3826310              0.21726302465E-03
   4052.3871392              0.16838662199E-02
    922.32722710             0.87395616265E-02
    261.24070989             0.35239968808E-01
     85.354641351            0.11153519115
     31.035035245            0.25588953961
S   2   1.00
     12.260860728            0.39768730901
      4.9987076005           0.24627849430
S   1   1.00
      1.1703108158           1.0000000
S   1   1.00
      0.46474740994          1.0000000
S   1   1.00
      0.18504536357          1.0000000
S   1   1.00
      0.70288026270E-01            1.0000000
P   4   1.00
     63.274954801            0.60685103418E-02
     14.627049379            0.41912575824E-01
      4.4501223456           0.16153841088
      1.5275799647           0.35706951311
P   1   1.00
      0.52935117943          1.0000000
P   1   1.00
      0.17478421270          1.0000000
P   1   1.00
      0.51112745706E-01            1.0000000
D   1   1.00
      2.3140000000           1.0000000
D   1   1.00
      0.64500000000          1.0000000
D   1   1.00
      0.14696477366          1.0000000
F   1   1.00
      1.4280000000           1.0000000
****
$end

--------------------------------------------------------------

   18    -211.2820785456      5.59E-09 Convergence criterion met
 Total energy in the final basis set = -211.2820785456
    9    -211.2820766942      4.23E-09 Convergence criterion met
 Total energy in the final basis set = -211.2820766942
    9    -211.2820775442      8.36E-09 Convergence criterion met
 Total energy in the final basis set = -211.2820775442
    9    -211.2820775513      8.25E-09 Convergence criterion met
 Total energy in the final basis set = -211.2820775513
    9    -211.2820776473      7.18E-09 Convergence criterion met
 Total energy in the final basis set = -211.2820776473
    9    -211.2820780335      2.95E-09 Convergence criterion met
 Total energy in the final basis set = -211.2820780335
    9    -211.2820784788      3.91E-09 Convergence criterion met
 Total energy in the final basis set = -211.2820784788
    9    -211.2820774273      4.80E-09 Convergence criterion met
 Total energy in the final basis set = -211.2820786187
    8    -211.2820788333      3.91E-09 Convergence criterion met
 Total energy in the final basis set = -211.2820788333
    9    -211.2820779813      1.37E-09 Convergence criterion met
 Total energy in the final basis set = -211.2820779813
    7    -211.2820786200      9.89E-09 Convergence criterion met
 Total energy in the final basis set = -211.2820786200
    7    -211.2820784190      7.54E-09 Convergence criterion met
 Total energy in the final basis set = -211.2820784190
    8    -211.2820788362      8.70E-09 Convergence criterion met
 Total energy in the final basis set = -211.2820788362
    8    -211.2820773187      5.82E-09 Convergence criterion met
 Total energy in the final basis set = -211.2820773187
 Frequency:        66.77                  85.06                 190.54
 Force Cnst:      0.0032                 0.0053                 0.0219
 Red. Mass:       1.2134                 1.2437                 1.0240
 IR Intens:        0.412                  0.587                  0.790
 Frequency:       211.16                 279.10                 469.97
 Force Cnst:      0.0272                 0.0464                 0.1894
 Red. Mass:       1.0366                 1.0116                 1.4558
 IR Intens:        0.612                  0.694                 65.879
 Frequency:       614.00                 626.38                 661.83
 Force Cnst:      0.7033                 0.5376                 0.3380
 Red. Mass:       3.1662                 2.3258                 1.3095
 IR Intens:        0.010                  0.034                  0.031
 Frequency:       706.09                 806.79                 852.88
 Force Cnst:      0.3484                 0.4714                 0.6014
 Red. Mass:       1.1859                 1.2292                 1.4032
 IR Intens:      159.894                  1.605                  0.127
 Frequency:       854.39                 878.82                1009.96
 Force Cnst:      1.6870                 1.7925                 0.8614
 Red. Mass:       3.9225                 3.9392                 1.4334
 IR Intens:        1.003                  0.151                 27.693
 Frequency:      1038.23                1069.41                1135.71
 Force Cnst:      0.8811                 1.0293                 0.9736
 Red. Mass:       1.3874                 1.5275                 1.2811
 IR Intens:       23.778                  5.926                  1.904
 Frequency:      1140.61                1276.53                1385.30
 Force Cnst:      2.9154                 1.3234                 4.8912
 Red. Mass:       3.8034                 1.3785                 4.3259
 IR Intens:        1.905                  0.848                  2.910
 Frequency:      1409.55                1462.52                1534.74
 Force Cnst:      3.4468                 3.3701                 4.1094
 Red. Mass:       2.9445                 2.6742                 2.9611
 IR Intens:        6.440                  7.916                  1.847
 Frequency:      3180.09                3193.82                3204.62
 Force Cnst:      6.4852                 6.5632                 6.6543
 Red. Mass:       1.0884                 1.0921                 1.0998
 IR Intens:        2.971                  4.783                  3.610
 Frequency:      3214.45                3593.62                4338.09
 Force Cnst:      6.7280                 8.2216                11.1747
 Red. Mass:       1.1051                 1.0805                 1.0078
 IR Intens:        1.293                 52.637                 42.255

 STANDARD THERMODYNAMIC QUANTITIES AT   298.15 K  AND     1.00 ATM

   This Molecule has  0 Imaginary Frequencies
   Zero point vibrational energy:       57.885 kcal/mol

   Atom    1 Element C  Has Mass   12.00000
   Atom    2 Element C  Has Mass   12.00000
   Atom    3 Element C  Has Mass   12.00000
   Atom    4 Element C  Has Mass   12.00000
   Atom    5 Element H  Has Mass    1.00783
   Atom    6 Element H  Has Mass    1.00783
   Atom    7 Element N  Has Mass   14.00307
   Atom    8 Element H  Has Mass    1.00783
   Atom    9 Element H  Has Mass    1.00783
   Atom   10 Element H  Has Mass    1.00783
   Atom   11 Element H  Has Mass    1.00783
   Atom   12 Element H  Has Mass    1.00783
   Molecular Mass:    69.057880 amu
   Principal axes and moments of inertia in amu*Bohr^2:
                             1           2           3
    Eigenvalues --      264.93184   265.41719   402.26857
          X               0.13631     0.96726     0.21409
          Y               0.92233    -0.20278     0.32891
          Z              -0.36155    -0.15263     0.91978
   Rotational Symmetry Number is   1
   The Molecule is an Asymmetric Top
   Translational Enthalpy:        0.889 kcal/mol
   Rotational Enthalpy:           0.889 kcal/mol
   Vibrational Enthalpy:         60.617 kcal/mol
   gas constant (RT):             0.592 kcal/mol
   Translational Entropy:        38.614  cal/mol.K
   Rotational Entropy:           24.851  cal/mol.K
   Vibrational Entropy:          17.163  cal/mol.K

   Total Enthalpy:               62.987 kcal/mol
   Total Entropy:                80.628  cal/mol.K

 Total job time:  1735.13s(wall), 12450.73s(cpu)
        *  Thank you very much for using Q-Chem.  Have a nice day.  *

User input: 2 of 2

                  Welcome to Q-Chem
     A Quantum Leap Into The Future Of Chemistry

 Q-Chem 4.2, Q-Chem, Inc., Pleasanton, CA (2014).

 Y. Shao,  Z. Gan,  E. Epifanovsky,  A. T. B. Gilbert,  M. Wormit,
 J. Kussmann,  A. W. Lange,  A. Behn,  J. Deng,  X. Feng,  D. Ghosh,
 M. Goldey,  P. R. Horn,  L. D. Jacobson,  I. Kaliman,  R. Z. Khaliullin,
 T. Kus,  A. Landau,  J. Liu,  E. I. Proynov,  Y. M. Rhee,  R. M. Richard,
 M. A. Rohrdanz,  R. P. Steele,  E. J. Sundstrom,  H. L. Woodcock III,
 P. M. Zimmerman,  D. Zuev,  B. Albrecht,  E. Alguire,  B. Austin,
 G. J. O. Beran,  Y. A. Bernard,  E. Berquist,  K. Brandhorst,
 K. B. Bravaya,  S. T. Brown,  D. Casanova,  C.-M. Chang,  Y. Chen,
 S. H. Chien,  K. D. Closser,  D. L. Crittenden,  M. Diedenhofen,
 R. A. DiStasio Jr.,  H. Do,  A. D. Dutoi,  R. G. Edgar,  S. Fatehi,
 L. Fusti-Molnar,  A. Ghysels,  A. Golubeva-Zadorozhnaya,  J. Gomes,
 M. W. D. Hanson-Heine,  P. H. P. Harbach,  A. W. Hauser,  E. G. Hohenstein,
 Z. C. Holden,  T.-C. Jagau,  H. Ji,  B. Kaduk,  K. Khistyaev,  Jaehoon Kim,
 Jihan Kim,  R. A. King,  P. Klunzinger,  D. Kosenkov,  T. Kowalczyk,
 C. M. Krauter,  K. U. Lao,  A. Laurent,  K. V. Lawler,  S. V. Levchenko,
 C. Y. Lin,  F. Liu,  E. Livshits,  R. C. Lochan,  A. Luenser,  P. Manohar,
 S. F. Manzer,  S.-P. Mao,  N. Mardirossian,  A. V. Marenich,  S. A. Maurer,
 N. J. Mayhall,  C. M. Oana,  R. Olivares-Amaya,  D. P. O'Neill,
 J. A. Parkhill,  T. M. Perrine,  R. Peverati,  P. A. Pieniazek,  A. Prociuk,
 D. R. Rehn,  E. Rosta,  N. J. Russ,  N. Sergueev,  S. M. Sharada,
 S. Sharma,  D. W. Small,  A. Sodt,  T. Stein,  D. Stuck,  Y.-C. Su,
 A. J. W. Thom,  T. Tsuchimochi,  L. Vogt,  O. Vydrov,  T. Wang,
 M. A. Watson,  J. Wenzel,  A. White,  C. F. Williams,  V. Vanovschi,
 S. Yeganeh,  S. R. Yost,  Z.-Q. You,  I. Y. Zhang,  X. Zhang,  Y. Zhao,
 B. R. Brooks,  G. K. L. Chan,  D. M. Chipman,  C. J. Cramer,
 W. A. Goddard III,  M. S. Gordon,  W. J. Hehre,  A. Klamt,
 H. F. Schaefer III,  M. W. Schmidt,  C. D. Sherrill,  D. G. Truhlar,
 A. Warshel,  X. Xu,  A. Aspuru-Guzik,  R. Baer,  A. T. Bell,  N. A. Besley,
 J.-D. Chai,  A. Dreuw,  B. D. Dunietz,  T. R. Furlani,  S. R. Gwaltney,
 C.-P. Hsu,  Y. Jung,  J. Kong,  D. S. Lambrecht,  W. Liang,  C. Ochsenfeld,
 V. A. Rassolov,  L. V. Slipchenko,  J. E. Subotnik,  T. Van Voorhis,
 J. M. Herbert,  A. I. Krylov,  P. M. W. Gill,  M. Head-Gordon

 Contributors to earlier versions of Q-Chem not listed above:
 R. D. Adamson,  J. Baker,  E. F. C. Byrd,  A. K. Chakraborty,  C.-L. Cheng,
 H. Dachsel,  R. J. Doerksen,  G. Hawkins,  A. Heyden,  S. Hirata,
 G. Kedziora,  F. J. Keil,  C. Kelley,  P. P. Korambath,  W. Kurlancheek,
 A. M. Lee,  M. S. Lee,  D. Liotard,  I. Lotan,  P. E. Maslen,  N. Nair,
 D. Neuhauser,  R. Olson,  B. Peters,  J. Ritchie,  N. E. Schultz,
 N. Shenvi,  A. C. Simmonett,  K. S. Thanthiriwatte,  Q. Wu,  W. Zhang

 Q-Chem 4.2.0 for Intel X86 EM64T Linux

 Parts of Q-Chem use Armadillo 4.100.2 (Dirt Cruiser).
 http://arma.sourceforge.net/

 Q-Chem begins on Thu Jun  5 17:23:44 2014

Host: compute-0-14.local
0

     Scratch files written to /scratch/tsivion/pyrrole-H2-freq.in20140605155503//
 Jun314 |home|tsivion|software|qchem411|libmdc|qstr_info.C -1
Finally everything over in PARseQInput

--------------------------------------------------------------
User input:
--------------------------------------------------------------

$molecule
read
$end

$rem
	jobtype 				sp
	exchange 				b97-d
	dft_d					empirical_grimme3
	basis 					gen ! def2-qzvpd
	max_scf_cycles 			200
	symmetry 				false
	sym_ignore 				true
	molden_format			true
	nbo						false
	scf_convergence 		7
	thresh					13
	geom_opt_tol_gradient 	300
	geom_opt_tol_energy     300
	GEOM_OPT_MAX_CYCLES		500
	thresh					13
	mem_static				3000
	mem_total				8000
	DFT_D3_RS6 				892
	DFT_D3_S8  				909
$end

$nbo
e2pert
$end

$basis ! def2-qzvpd
****
H     0
S   4   1.00
    190.69169000             0.70815167000E-03
     28.605532000            0.54678827000E-02
      6.5095943000           0.27966605000E-01
      1.8412455000           0.10764538000
S   1   1.00
      0.59853725000          1.0000000
S   1   1.00
      0.21397624000          1.0000000
S   1   1.00
      0.80316286000E-01            1.0000000
P   1   1.00
      2.2920000000           1.0000000
P   1   1.00
      0.83800000000          1.0000000
P   1   1.00
      0.29200000000          1.0000000
P   1   1.00
      0.84063199228E-01            1.0000000
D   1   1.00
      2.0620000000           1.0000000
D   1   1.00
      0.66200000000          1.0000000
F   1   1.00
      1.3970000000           1.0000000
****
C     0
S   8   1.00
  67025.0710290              0.38736308501E-04
  10039.9865380              0.30107917575E-03
   2284.9316911              0.15787918095E-02
    647.14122130             0.66087087195E-02
    211.09472335             0.23367123250E-01
     76.177643862            0.70420716898E-01
     29.633839163            0.17360344953
     12.187785081            0.32292305648
S   2   1.00
     53.026006299            0.74897404492E-01
     15.258502776            0.76136220983
S   1   1.00
      5.2403957464           1.0000000
S   1   1.00
      2.2905022379           1.0000000
S   1   1.00
      0.69673283006          1.0000000
S   1   1.00
      0.27599337363          1.0000000
S   1   1.00
      0.10739884389          1.0000000
S   1   1.00
      0.44981404899E-01            1.0000000
P   5   1.00
    105.12555082             0.84647553844E-03
     24.884461066            0.66274038534E-02
      7.8637230826           0.30120390419E-01
      2.8407001835           0.99951435476E-01
      1.1227137335           0.23826299282
P   1   1.00
      0.46050725555          1.0000000
P   1   1.00
      0.18937530913          1.0000000
P   1   1.00
      0.75983791611E-01            1.0000000
D   1   1.00
      1.8480000000           1.0000000
D   1   1.00
      0.64900000000          1.0000000
D   1   1.00
      0.22800000000          1.0000000
D   1   1.00
      0.76889830417E-01            1.0000000
F   1   1.00
      1.4190000000           1.0000000
F   1   1.00
      0.48500000000          1.0000000
G   1   1.00
      1.0110000000           1.0000000
****
N     0
S   8   1.00
  90726.8892100              0.39257887368E-04
  13590.5288010              0.30513316455E-03
   3092.9883781              0.16000560446E-02
    875.99876362             0.66982937306E-02
    285.74469982             0.23690078765E-01
    103.11913417             0.71455405268E-01
     40.128556777            0.17632774876
     16.528095704            0.32677592815
S   2   1.00
     69.390960983            0.80052094386E-01
     20.428200596            0.78268063538
S   1   1.00
      7.1292587972           1.0000000
S   1   1.00
      3.1324304893           1.0000000
S   1   1.00
      0.98755778723          1.0000000
S   1   1.00
      0.38765721307          1.0000000
S   1   1.00
      0.14909883075          1.0000000
S   1   1.00
      0.62151630318E-01            1.0000000
P   5   1.00
    150.05742670            -0.86216165986E-03
     35.491599483           -0.68571273236E-02
     11.247864223           -0.31795688855E-01
      4.0900305195          -0.10537396822
      1.6220573146          -0.24519708041
P   1   1.00
      0.66442261530          1.0000000
P   1   1.00
      0.27099770070          1.0000000
P   1   1.00
      0.10688749984          1.0000000
D   1   1.00
      2.8370000000           1.0000000
D   1   1.00
      0.96800000000          1.0000000
D   1   1.00
      0.33500000000          1.0000000
D   1   1.00
      0.10825280010          1.0000000
F   1   1.00
      2.0270000000           1.0000000
F   1   1.00
      0.68500000000          1.0000000
G   1   1.00
      1.4270000000           1.0000000
****
O     0
S   8   1.00
 116506.4690800              0.40383857939E-04
  17504.3497240              0.31255139004E-03
   3993.4513230              0.16341473495E-02
   1133.0063186              0.68283224757E-02
    369.99569594             0.24124410221E-01
    133.62074349             0.72730206154E-01
     52.035643649            0.17934429892
     21.461939313            0.33059588895
S   2   1.00
     89.835051252            0.96468652996E-01
     26.428010844            0.94117481120
S   1   1.00
      9.2822824649           1.0000000
S   1   1.00
      4.0947728533           1.0000000
S   1   1.00
      1.3255349078           1.0000000
S   1   1.00
      0.51877230787          1.0000000
S   1   1.00
      0.19772676454          1.0000000
S   1   1.00
      0.69638535104E-01            1.0000000
P   5   1.00
    191.15255810             0.25115697705E-02
     45.233356739            0.20039240864E-01
     14.353465922            0.93609064762E-01
      5.2422371832           0.30618127124
      2.0792418599           0.67810501439
P   1   1.00
      0.84282371424          1.0000000
P   1   1.00
      0.33617694891          1.0000000
P   1   1.00
      0.12863997974          1.0000000
P   1   1.00
      0.43598162776E-01            1.0000000
D   1   1.00
      3.7750000000           1.0000000
D   1   1.00
      1.3000000000           1.0000000
D   1   1.00
      0.44400000000          1.0000000
D   1   1.00
      0.12546378695          1.0000000
F   1   1.00
      2.6660000000           1.0000000
F   1   1.00
      0.85900000000          1.0000000
G   1   1.00
      1.8460000000           1.0000000
****
$end

--------------------------------------------------------------

             Standard Nuclear Orientation (Angstroms)
    I     Atom           X                Y                Z
 ----------------------------------------------------------------
    1      C       0.8563599600     0.5707686000    -0.0294352100
    2      C      -0.3774637600     1.1927111900     0.0044273000
    3      C      -1.3301597200     0.2259670800     0.4374296100
    4      C      -0.6520878000    -0.9575469000     0.6555341600
    5      H      -2.3939158200     0.3736509400     0.5755036500
    6      H      -0.5762290600     2.2235173600    -0.2592350600
    7      N       0.6742798000    -0.7353264700     0.3668015600
    8      H       1.8344660900     0.9388493300    -0.3065599100
    9      H      -0.9995010700    -1.9251094800     0.9924802500
   10      H       1.4040075600    -1.4256032400     0.4429152000
   11      H      -0.1831130000     0.3688098100     3.0197552500
   12      H       0.1658868200     0.5188817900     3.6634531900
 ----------------------------------------------------------------

   16    -211.2953433943      3.05E-08 Convergence criterion met
 Total energy in the final basis set = -211.2953433943

                    Orbital Energies (a.u.)
 --------------------------------------------------------------

 Alpha MOs
 -- Occupied --
-14.041  -9.921  -9.921  -9.887  -9.887  -0.896  -0.704  -0.654
 -0.535  -0.510  -0.491  -0.384  -0.379  -0.375  -0.352  -0.345
 -0.333  -0.217  -0.188

          Ground-State Mulliken Net Atomic Charges

     Atom                 Charge (a.u.)
  ----------------------------------------
      1 C                    -0.092976
      2 C                    -0.090898
      3 C                    -0.069793
      4 C                    -0.008752
      5 H                     0.053782
      6 H                     0.083050
      7 N                    -0.259864
      8 H                     0.072532
      9 H                     0.053945
     10 H                     0.306402
     11 H                     0.096921
     12 H                    -0.144349
  ----------------------------------------
  Sum of atomic charges =    -0.000000

                    Cartesian Multipole Moments
 -----------------------------------------------------------------
    Charge (ESU x 10^10)
                 0.0000
    Dipole Moment (Debye)
         X       1.2927      Y      -1.2752      Z      -0.1023
       Tot       1.8187
    Quadrupole Moments (Debye-Ang)
        XX     -28.0751     XY      -1.6496     YY     -28.3764
        XZ      -0.3914     YZ      -2.2396     ZZ     -35.8262

 Total job time:  401.25s(wall), 3055.79s(cpu)
        *  Thank you very much for using Q-Chem.  Have a nice day.  *
