 Q-Chem 4.2, Q-Chem, Inc., Pleasanton, CA (2014).
 Q-Chem 4.2.0 for Intel X86 EM64T Linux

User input:
--------------------------------------------------------------

$comment
$end

$molecule
read
$end

$rem
	jobtype 				freq
	exchange 				b97-d
	scf_guess				read
	dft_d					empirical_grimme3
	basis 					gen ! def2-tzvp
	max_scf_cycles 			200
	symmetry 				false
	sym_ignore 				true
	molden_format			true
	nbo						false
	scf_convergence 		8
	thresh					13
	thresh					13
	mem_static				3000
	mem_total				8000
	DFT_D3_RS6 				892
	DFT_D3_S8  				909
$end

$basis ! def2-tzvp

****
H     0
S   3   1.00
     34.0613410              0.60251978E-02
      5.1235746              0.45021094E-01
      1.1646626              0.20189726
S   1   1.00
      0.32723041             1.0000000
S   1   1.00
      0.10307241             1.0000000
P   1   1.00
      0.8000000              1.0000000
****
C     0
S   6   1.00
  13575.3496820              0.22245814352E-03
   2035.2333680              0.17232738252E-02
    463.22562359             0.89255715314E-02
    131.20019598             0.35727984502E-01
     42.853015891            0.11076259931
     15.584185766            0.24295627626
S   2   1.00
      6.2067138508           0.41440263448
      2.5764896527           0.23744968655
S   1   1.00
      0.57696339419          1.0000000
S   1   1.00
      0.22972831358          1.0000000
S   1   1.00
      0.95164440028E-01            1.0000000
P   4   1.00
     34.697232244            0.53333657805E-02
      7.9582622826           0.35864109092E-01
      2.3780826883           0.14215873329
      0.81433208183          0.34270471845
P   1   1.00
      0.28887547253          1.0000000
P   1   1.00
      0.10056823671          1.0000000
D   1   1.00
      1.09700000             1.0000000
D   1   1.00
      0.31800000             1.0000000
F   1   1.00
      0.76100000             1.0000000
****
N     0
S   6   1.00
  19730.8006470              0.21887984991E-03
   2957.8958745              0.16960708803E-02
    673.22133595             0.87954603538E-02
    190.68249494             0.35359382605E-01
     62.295441898            0.11095789217
     22.654161182            0.24982972552
S   2   1.00
      8.9791477428           0.40623896148
      3.6863002370           0.24338217176
S   1   1.00
      0.84660076805          1.0000000
S   1   1.00
      0.33647133771          1.0000000
S   1   1.00
      0.13647653675          1.0000000
P   4   1.00
     49.200380510            0.55552416751E-02
     11.346790537            0.38052379723E-01
      3.4273972411           0.14953671029
      1.1785525134           0.34949305230
P   1   1.00
      0.41642204972          1.0000000
P   1   1.00
      0.14260826011          1.0000000
D   1   1.00
      1.65400000             1.0000000
D   1   1.00
      0.46900000             1.0000000
F   1   1.00
      1.09300000             1.0000000
****
O     0
S   6   1.00
  27032.3826310              0.21726302465E-03
   4052.3871392              0.16838662199E-02
    922.32722710             0.87395616265E-02
    261.24070989             0.35239968808E-01
     85.354641351            0.11153519115
     31.035035245            0.25588953961
S   2   1.00
     12.260860728            0.39768730901
      4.9987076005           0.24627849430
S   1   1.00
      1.1703108158           1.0000000
S   1   1.00
      0.46474740994          1.0000000
S   1   1.00
      0.18504536357          1.0000000
P   4   1.00
     63.274954801            0.60685103418E-02
     14.627049379            0.41912575824E-01
      4.4501223456           0.16153841088
      1.5275799647           0.35706951311
P   1   1.00
      0.52935117943          1.0000000
P   1   1.00
      0.17478421270          1.0000000
D   1   1.00
      2.31400000             1.0000000
D   1   1.00
      0.64500000             1.0000000
F   1   1.00
      1.42800000             1.0000000
****
Mg     0
S   7   1.00
  31438.3495550              0.60912311326E-03
   4715.5153354              0.47066196465E-02
   1073.1629247              0.24135820657E-01
    303.57238768             0.93628959834E-01
     98.626251042            0.26646742093
     34.943808417            0.47890929917
     12.859785199            0.33698490286
S   3   1.00
     64.876913004            0.19180889307E-01
     19.725520777            0.90913704392E-01
      2.8951804339          -0.39563756125
S   2   1.00
      1.1960454710           1.6827603373
      0.54329451156          0.52141091954
S   1   1.00
      0.10099104092          1.0000000
S   1   1.00
      0.36865728085E-01            1.0000000
P   5   1.00
    179.87189612             0.53799549018E-02
     42.120069376            0.39318014098E-01
     13.120503032            0.15740129476
      4.6257503609           0.35919094128
      1.6695211016           0.45533379310
P   1   1.00
      0.58551012105          1.0000000
P   1   1.00
      0.18914796195          1.0000000
P   1   1.00
      0.53768755187E-01            1.0000000
D   1   1.00
      3.4440000              1.0000000
D   1   1.00
      0.2900000              1.0000000
D   1   1.00
      0.0700000              1.0000000
****
Ca     0
S   8   1.00
 172517.3268500              0.23317502546E-03
  25861.5192750              0.18076521980E-02
   5885.6618668              0.93943844255E-02
   1665.9730031              0.38108409009E-01
    542.36718148             0.12331203853
    194.57803492             0.29004470954
     75.303597636            0.40587151157
     29.574062589            0.20398410743
S   4   1.00
    191.20074660            -0.24419759759E-01
     58.840299883           -0.11547027448
      8.9642540845           0.56356636717
      3.6856960541           0.56709682704
S   2   1.00
      5.2464289726          -0.22825334325
      0.84862621528          0.72625219172
S   1   1.00
      0.36743300538          1.0000000
S   1   1.00
      0.66821582613E-01            1.0000000
S   1   1.00
      0.26759730445E-01            1.0000000
P   6   1.00
    836.97262058             0.25258346092E-02
    197.93040142             0.20076506686E-01
     63.135558054            0.91302987366E-01
     23.282687170            0.25247029915
      9.1176444932           0.39426326344
      3.6336120139           0.23011559492
P   3   1.00
     13.494163120           -0.26495021951E-01
      1.8139259790           0.55088108210
      0.71981826006          1.0280616620
P   1   1.00
      0.27629576992          1.0000000
P   1   1.00
      0.0749790              1.0000000
P   1   1.00
      0.0269270              1.0000000
D   2   1.00
      5.4979093879           0.73770011433E-01
      1.3177128032           0.26052853169
D   1   1.00
      0.32188682649          1.0000000
D   1   1.00
      0.70528614919E-01            1.0000000
****
$end

--------------------------------------------------------------

             Standard Nuclear Orientation (Angstroms)
    I     Atom           X                Y                Z
 ----------------------------------------------------------------
    1      C      -0.3187860000    -0.1159304900     0.1126983000
    2      H       0.2591381000     0.5079334600     0.8017499700
    3      H       0.3642799400    -0.7195048600    -0.4932060500
    4      H      -0.9194788200     0.5232907000    -0.5419720000
    5      H      -0.9791132200    -0.7755688000     0.6844097800
 ----------------------------------------------------------------

    2     -40.5076053826      9.66E-10 Convergence criterion met
 Total energy in the final basis set = -40.5076053826

                    Orbital Energies (a.u.)
 --------------------------------------------------------------

 Alpha MOs
 -- Occupied --
 -9.883  -0.627  -0.347  -0.347  -0.347

          Ground-State Mulliken Net Atomic Charges

     Atom                 Charge (a.u.)
  ----------------------------------------
      1 C                    -0.476568
      2 H                     0.119128
      3 H                     0.119143
      4 H                     0.119160
      5 H                     0.119136
  ----------------------------------------
  Sum of atomic charges =     0.000000

                    Cartesian Multipole Moments
 -----------------------------------------------------------------
    Charge (ESU x 10^10)
                 0.0000
    Dipole Moment (Debye)
         X      -0.0000      Y      -0.0000      Z       0.0000
       Tot       0.0001
    Quadrupole Moments (Debye-Ang)
        XX      -8.4433     XY      -0.0002     YY      -8.4436
        XZ       0.0001     YZ      -0.0000     ZZ      -8.4434

 Frequency:      1316.81                1317.07                1318.71
 Force Cnst:      1.2056                 1.2061                 1.2090
 Red. Mass:       1.1801                 1.1800                 1.1800
 IR Intens:       13.244                 13.251                 13.256
 Frequency:      1534.32                1535.09                2973.75
 Force Cnst:      1.3979                 1.3993                 5.2511
 Red. Mass:       1.0078                 1.0078                 1.0078
 IR Intens:        0.002                  0.001                  0.001
 Frequency:      3084.11                3084.49                3084.74
 Force Cnst:      6.1690                 6.1702                 6.1711
 Red. Mass:       1.1008                 1.1007                 1.1007
 IR Intens:       28.274                 28.276                 28.289

 STANDARD THERMODYNAMIC QUANTITIES AT   298.15 K  AND     1.00 ATM

   This Molecule has  0 Imaginary Frequencies
   Zero point vibrational energy:       27.518 kcal/mol

   Atom    1 Element C  Has Mass   12.00000
   Atom    2 Element H  Has Mass    1.00783
   Atom    3 Element H  Has Mass    1.00783
   Atom    4 Element H  Has Mass    1.00783
   Atom    5 Element H  Has Mass    1.00783
   Molecular Mass:    16.031320 amu
   Principal axes and moments of inertia in amu*Bohr^2:
                             1           2           3
    Eigenvalues --       11.49705    11.49785    11.49841
          X               0.82339    -0.32293     0.46663
          Y              -0.38029     0.29632     0.87611
          Z               0.42120     0.89884    -0.12118
   Rotational Symmetry Number is   1
   The Molecule is an Asymmetric Top
   Translational Enthalpy:        0.889 kcal/mol
   Rotational Enthalpy:           0.889 kcal/mol
   Vibrational Enthalpy:         27.543 kcal/mol
   gas constant (RT):             0.592 kcal/mol
   Translational Entropy:        34.261  cal/mol.K
   Rotational Entropy:           15.082  cal/mol.K
   Vibrational Entropy:           0.096  cal/mol.K

   Total Enthalpy:               29.913 kcal/mol
   Total Entropy:                49.440  cal/mol.K

 Total job time:  28.86s(wall), 48.28s(cpu)
        *  Thank you very much for using Q-Chem.  Have a nice day.  *
